 Gaussian 16, Revision A.03,
 Gaussian 16:  ES64L-G16RevA.03 25-Dec-2016

 ----------------------------------------------------------------------
 #p freq b3lyp/cc-pvdz geom=connectivity empiricaldispersion=gd3 pop=(h
 irshfeld, nboread) density=current iop(7/33=1,6/80=1)
 ----------------------------------------------------------------------

 -------------------
 Title Card Required
 -------------------
 Symbolic Z-matrix:
 Charge =  0 Multiplicity = 1

                         Standard orientation:
 ---------------------------------------------------------------------
 Center     Atomic      Atomic             Coordinates (Angstroms)
 Number     Number       Type             X           Y           Z
 ---------------------------------------------------------------------
      1          6           0        2.305319   -0.588949   -0.000041
      2          6           0        1.841623    0.733203    0.000037
      3          6           0        0.473367    0.993311    0.000098
      4          6           0       -0.442367   -0.083247   -0.000078
      5          6           0        0.019509   -1.399009   -0.000034
      6          6           0        1.400751   -1.649812    0.000038
      7          1           0        3.379894   -0.782492   -0.000063
      8          1           0        2.527997    1.581799    0.000073
      9          1           0       -0.682832   -2.232619    0.000020
     10          1           0        1.757742   -2.681415    0.000019
     11          8           0        0.020435    2.278111    0.000037
     12          1           0       -0.950345    2.229474    0.000276
     13          8           0       -1.759383    0.317139   -0.000352
     14          6           0       -2.764361   -0.684776    0.000202
     15          1           0       -3.726152   -0.155043    0.000386
     16          1           0       -2.699277   -1.323130   -0.899489
     17          1           0       -2.698485   -1.322900    0.899956
 ---------------------------------------------------------------------

 SCF Done:  E(RB3LYP) =  -422.030102608     A.U. after   14 cycles

 The electronic state is 1-A.
 Alpha  occ. eigenvalues --  -19.18319 -19.16208 -10.25350 -10.24427 -10.24129
 Alpha  occ. eigenvalues --  -10.19017 -10.18343 -10.18288 -10.18163  -1.08173
 Alpha  occ. eigenvalues --   -1.04766  -0.84586  -0.75651  -0.74125  -0.69949
 Alpha  occ. eigenvalues --   -0.60553  -0.60412  -0.55058  -0.52030  -0.48605
 Alpha  occ. eigenvalues --   -0.47671  -0.45403  -0.44436  -0.42383  -0.40749
 Alpha  occ. eigenvalues --   -0.38837  -0.37846  -0.34641  -0.34402  -0.33861
 Alpha  occ. eigenvalues --   -0.32137  -0.23921  -0.20749
 Alpha virt. eigenvalues --    0.00357   0.01341   0.05571   0.06117   0.08436
 Alpha virt. eigenvalues --    0.10690   0.11803   0.12567   0.12899   0.14730
 Alpha virt. eigenvalues --    0.15558   0.16921   0.21326   0.25043   0.28741

 Mulliken charges:
               1
     1  C    0.044996
     2  C    0.041326
     3  C    0.013591
     4  C    0.133300
     5  C   -0.008493
     6  C    0.027942
     7  H   -0.033810
     8  H   -0.027472
     9  H   -0.032516
    10  H   -0.036175
    11  O   -0.175048
    12  H    0.145023
    13  O   -0.323333
    14  C    0.127672
    15  H    0.036929
    16  H    0.033030
    17  H    0.033039
 Sum of Mulliken charges =  -0.00000

 Dipole moment (field-independent basis, Debye):
    X=             -2.2355    Y=             -1.4230    Z=              0.0010  Tot=              2.6500
 Quadrupole moment (field-independent basis, Debye-Ang):
   XX=            -43.5823   YY=            -51.8943   ZZ=            -55.5796
   XY=              0.2692   XZ=             -0.0019   YZ=              0.0010

  Exact polarizability: 109.200  -1.271  92.210  -0.000   0.002  38.095
 Approx polarizability: 163.490  -6.615 158.629   0.001   0.001  57.459

 Summary of Natural Population Analysis:

                                       Natural Population
                Natural  -----------------------------------------------
    Atom  No    Charge         Core      Valence    Rydberg      Total
 -----------------------------------------------------------------------
      C    1   -0.23500      1.99899     4.22171    0.01429     6.23500
      C    2   -0.27731      1.99893     4.26294    0.01544     6.27731
      C    3    0.31751      1.99861     3.65825    0.02563     5.68249
      C    4    0.26290      1.99859     3.71517    0.02335     5.73710
      C    5   -0.30489      1.99893     4.29257    0.01339     6.30489
      C    6   -0.24275      1.99899     4.22881    0.01495     6.24275
      H    7    0.22787      0.00000     0.76922    0.00292     0.77213
      H    8    0.23671      0.00000     0.75988    0.00340     0.76329
      H    9    0.23039      0.00000     0.76678    0.00284     0.76961
      H   10    0.22676      0.00000     0.77027    0.00297     0.77324
      O   11   -0.68645      1.99978     6.67670    0.00997     8.68645
      H   12    0.48174      0.00000     0.51017    0.00809     0.51826
      O   13   -0.57669      1.99972     6.56706    0.00991     8.57669
      C   14   -0.25255      1.99935     4.23932    0.01387     6.25255
      H   15    0.21204      0.00000     0.78596    0.00201     0.78796
      H   16    0.18986      0.00000     0.80610    0.00404     0.81014
      H   17    0.18986      0.00000     0.80610    0.00404     0.81014
 =======================================================================
   * Total *    0.00000     17.99189    47.83699    0.17111    66.00000

                      1                      2                      3
                      A                      A                      A
 Frequencies --     72.2971               180.2650               227.8287
 Red. masses --      3.2161                 3.3435                 3.6241
 Frc consts  --      0.0099                 0.0640                 0.1108
 IR Inten    --      3.6716                 0.4462                 1.1065

                      4                      5                      6
                      A                      A                      A
 Frequencies --    257.8651               317.1430               346.1329
 Red. masses --      1.4055                 2.7774                 4.2255
 Frc consts  --      0.0551                 0.1646                 0.2983
 IR Inten    --      0.3261                 0.0617                 5.0227

                      7                      8                      9
                      A                      A                      A
 Frequencies --    448.8774               479.4982               507.9785
 Red. masses --      1.6032                 1.6188                 6.1818
 Frc consts  --      0.1903                 0.2193                 0.9398
 IR Inten    --     54.5962                39.1191                 0.8644

                     10                     11                     12
                      A                      A                      A
 Frequencies --    535.9799               576.4062               592.6784
 Red. masses --      4.6237                 3.9945                 6.2557
 Frc consts  --      0.7826                 0.7819                 1.2947
 IR Inten    --      9.8532                 0.3811                 2.6971

                     13                     14                     15
                      A                      A                      A
 Frequencies --    732.4135               754.3611               771.6599
 Red. masses --      4.4028                 1.2368                 4.8827
 Frc consts  --      1.3915                 0.4147                 1.7130
 IR Inten    --      0.0246                56.9375                25.2585

                     16                     17                     18
                      A                      A                      A
 Frequencies --    845.0174               853.5880               926.4873
 Red. masses --      5.7258                 1.4369                 1.3715
 Frc consts  --      2.4089                 0.6168                 0.6936
 IR Inten    --      6.6216                 0.0363                 5.2748

                     19                     20                     21
                      A                      A                      A
 Frequencies --    973.4235              1051.1542              1069.3773
 Red. masses --      1.2550                 2.8564                 2.9299
 Frc consts  --      0.7007                 1.8595                 1.9741
 IR Inten    --      0.0784                25.5834                40.2660

                     22                     23                     24
                      A                      A                      A
 Frequencies --   1130.9576              1161.5928              1175.9996
 Red. masses --      1.6486                 1.2778                 1.0957
 Frc consts  --      1.2424                 1.0158                 0.8928
 IR Inten    --     36.0429                 0.6740                 1.7240

                     25                     26                     27
                      A                      A                      A
 Frequencies --   1192.0837              1225.9707              1263.0006
 Red. masses --      1.5120                 1.3824                 3.6746
 Frc consts  --      1.2659                 1.2242                 3.4536
 IR Inten    --     10.4843                57.8736               188.4738

                     28                     29                     30
                      A                      A                      A
 Frequencies --   1300.2845              1330.6712              1410.0945
 Red. masses --      3.1492                 1.7349                 2.7022
 Frc consts  --      3.1371                 1.8099                 3.1657
 IR Inten    --    187.5375                11.9813                39.5065

                     31                     32                     33
                      A                      A                      A
 Frequencies --   1461.7975              1463.6616              1478.4123
 Red. masses --      1.0412                 1.1974                 1.0668
 Frc consts  --      1.3108                 1.5114                 1.3738
 IR Inten    --      6.1735                18.3573                30.1415

                     34                     35                     36
                      A                      A                      A
 Frequencies --   1501.1093              1540.7459              1650.2917
 Red. masses --      2.5084                 3.3826                 6.8359
 Frc consts  --      3.3302                 4.7312                10.9690
 IR Inten    --      9.1727               186.7935                33.3157

                     37                     38                     39
                      A                      A                      A
 Frequencies --   1665.0240              2997.9029              3065.1092
 Red. masses --      6.1665                 1.0348                 1.1066
 Frc consts  --     10.0724                 5.4794                 6.1252
 IR Inten    --     10.7929                53.6969                38.1908

                     40                     41                     42
                      A                      A                      A
 Frequencies --   3135.6287              3176.9495              3191.3967
 Red. masses --      1.1012                 1.0850                 1.0905
 Frc consts  --      6.3791                 6.4522                 6.5439
 IR Inten    --     19.3465                 0.6693                15.9388

                     43                     44                     45
                      A                      A                      A
 Frequencies --   3202.6986              3211.4168              3725.9072
 Red. masses --      1.0948                 1.0954                 1.0646
 Frc consts  --      6.6161                 6.6560                 8.7076
 IR Inten    --     15.7257                 5.5435                93.9809

 - Thermochemistry -
 -------------------
 Temperature   298.150 Kelvin.  Pressure   1.00000 Atm.
 Atom     1 has atomic number  6 and mass  12.00000

 Molecular mass:   124.05243 amu.
 Principal axes and moments of inertia in atomic units:
                           1         2         3
     Eigenvalues --   693.675651167.979341850.00138
           X            0.99958   0.02899  -0.00001
           Y           -0.02899   0.99958   0.00000
           Z            0.00001  -0.00000   1.00000
 This molecule is an asymmetric top.
 Rotational symmetry number  1.
 Warning -- assumption of classical behavior for rotation
           may cause significant error
 Rotational temperatures (Kelvin)      0.12486     0.07416     0.04682
 Rotational constants (GHZ):           2.60171     1.54518     0.97554
 Zero-point vibrational energy     359951.2 (Joules/Mol)
                                   86.03040 (Kcal/Mol)
 Warning -- explicit consideration of  12 degrees of freedom as
           vibrations may cause significant error
 Vibrational temperatures:    104.02   259.36   327.79   371.01   456.30
          (Kelvin)            498.01   645.83   689.89   730.87   771.16
                              829.32   852.73  1053.78  1085.36  1110.25
                             1215.79  1228.12  1333.01  1400.54  1512.38
                             1538.60  1627.20  1671.27  1692.00  1715.14
                             1763.90  1817.18  1870.82  1914.54  2028.81
                             2103.20  2105.88  2127.11  2159.76  2216.79
                             2374.40  2395.60  4313.31  4410.01  4511.47
                             4570.92  4591.71  4607.97  4620.51  5360.75

 Zero-point correction=                           0.137098 (Hartree/Particle)
 Thermal correction to Energy=                    0.145053
 Thermal correction to Enthalpy=                  0.145997
 Thermal correction to Gibbs Free Energy=         0.104565
 Sum of electronic and zero-point Energies=           -421.893004
 Sum of electronic and thermal Energies=              -421.885050
 Sum of electronic and thermal Enthalpies=            -421.884105
 Sum of electronic and thermal Free Energies=         -421.925537

                     E (Thermal)             CV                S
                      KCal/Mol        Cal/Mol-Kelvin    Cal/Mol-Kelvin
 Total                   91.022             30.738             87.201
 Electronic               0.000              0.000              0.000
 Translational            0.889              2.981             40.360
 Rotational               0.889              2.981             28.796
 Vibrational             89.245             24.776             18.044
 Vibration     1          0.598              1.967              4.090
 Vibration     2          0.629              1.866              2.326
 Vibration     3          0.651              1.799              1.896
 Vibration     4          0.667              1.749              1.676
 Vibration     5          0.704              1.641              1.325
 Vibration     6          0.724              1.583              1.184
 Vibration     7          0.808              1.363              0.799
 Vibration     8          0.836              1.296              0.711
 Vibration     9          0.863              1.232              0.638
 Vibration    10          0.891              1.170              0.574
 Vibration    11          0.933              1.082              0.492
 Vibration    12          0.950              1.047              0.462

 Optimization completed.
    -- Stationary point found.
 Normal termination of Gaussian 16 at Fri Sep  3 14:56:18 2021.
