 Gaussian 16, Revision A.03,
 Gaussian 16:  ES64L-G16RevA.03 25-Dec-2016

 -------------------------------------------------------------
 # B3LYP empiricaldispersion=gd3 cc-pVDZ geom=connectivity opt
 -------------------------------------------------------------

 -------------------
 Title Card Required
 -------------------
 Symbolic Z-matrix:
 Charge =  0 Multiplicity = 1

 SCF Done:  E(RB3LYP) =  -422.004845881     A.U. after   14 cycles
 SCF Done:  E(RB3LYP) =  -422.014340139     A.U. after   13 cycles
 SCF Done:  E(RB3LYP) =  -422.017669516     A.U. after   12 cycles
 SCF Done:  E(RB3LYP) =  -422.019791752     A.U. after   12 cycles
 SCF Done:  E(RB3LYP) =  -422.024196612     A.U. after   14 cycles
 SCF Done:  E(RB3LYP) =  -422.027126788     A.U. after   12 cycles
 SCF Done:  E(RB3LYP) =  -422.029587368     A.U. after   12 cycles
 SCF Done:  E(RB3LYP) =  -422.029945558     A.U. after   12 cycles
 SCF Done:  E(RB3LYP) =  -422.030037901     A.U. after   11 cycles
 SCF Done:  E(RB3LYP) =  -422.030070668     A.U. after    9 cycles
 SCF Done:  E(RB3LYP) =  -422.030095663     A.U. after   10 cycles
 SCF Done:  E(RB3LYP) =  -422.030101632     A.U. after    9 cycles
 SCF Done:  E(RB3LYP) =  -422.030102608     A.U. after    8 cycles
 Optimization completed.
    -- Stationary point found.

                         Standard orientation:
 ---------------------------------------------------------------------
 Center     Atomic      Atomic             Coordinates (Angstroms)
 Number     Number       Type             X           Y           Z
 ---------------------------------------------------------------------
      1          6           0        2.305319   -0.588949   -0.000041
      2          6           0        1.841623    0.733203    0.000037
      3          6           0        0.473367    0.993311    0.000098
      4          6           0       -0.442367   -0.083247   -0.000078
      5          6           0        0.019509   -1.399009   -0.000034
      6          6           0        1.400751   -1.649812    0.000038
      7          1           0        3.379893   -0.782492   -0.000063
      8          1           0        2.527997    1.581799    0.000073
      9          1           0       -0.682832   -2.232618    0.000020
     10          1           0        1.757742   -2.681415    0.000019
     11          8           0        0.020435    2.278111    0.000037
     12          1           0       -0.950345    2.229474    0.000276
     13          8           0       -1.759383    0.317139   -0.000352
     14          6           0       -2.764360   -0.684776    0.000202
     15          1           0       -3.726152   -0.155043    0.000386
     16          1           0       -2.699277   -1.323130   -0.899489
     17          1           0       -2.698485   -1.322900    0.899955
 ---------------------------------------------------------------------

 The electronic state is 1-A.
 Alpha  occ. eigenvalues --  -19.18319 -19.16208 -10.25350 -10.24427 -10.24129
 Alpha  occ. eigenvalues --  -10.19017 -10.18343 -10.18288 -10.18163  -1.08173
 Alpha  occ. eigenvalues --   -1.04766  -0.84587  -0.75651  -0.74125  -0.69949
 Alpha  occ. eigenvalues --   -0.60553  -0.60412  -0.55058  -0.52030  -0.48605
 Alpha  occ. eigenvalues --   -0.47671  -0.45403  -0.44436  -0.42383  -0.40749
 Alpha  occ. eigenvalues --   -0.38837  -0.37846  -0.34641  -0.34402  -0.33861
 Alpha  occ. eigenvalues --   -0.32137  -0.23921  -0.20749
 Alpha virt. eigenvalues --    0.00357   0.01341   0.05571   0.06117   0.08436
 Alpha virt. eigenvalues --    0.10690   0.11803   0.12567   0.12899   0.14730
 Alpha virt. eigenvalues --    0.15558   0.16921   0.21326   0.25043   0.28741

 Mulliken charges:
               1
     1  C    0.044996
     2  C    0.041327
     3  C    0.013591
     4  C    0.133300
     5  C   -0.008493
     6  C    0.027941
     7  H   -0.033810
     8  H   -0.027472
     9  H   -0.032516
    10  H   -0.036175
    11  O   -0.175048
    12  H    0.145023
    13  O   -0.323333
    14  C    0.127672
    15  H    0.036929
    16  H    0.033030
    17  H    0.033039
 Sum of Mulliken charges =  -0.00000

 Dipole moment (field-independent basis, Debye):
    X=             -2.2355    Y=             -1.4230    Z=              0.0010  Tot=              2.6500
 Quadrupole moment (field-independent basis, Debye-Ang):
   XX=            -43.5823   YY=            -51.8943   ZZ=            -55.5796
   XY=              0.2692   XZ=             -0.0019   YZ=              0.0010

 Normal termination of Gaussian 16 at Fri Sep  3 14:17:08 2021.
