 Gaussian 16, Revision A.03,
 Gaussian 16:  ES64L-G16RevA.03 25-Dec-2016

 -------------------------------------------
 # opt b3lyp def2svp empiricaldispersion=gd3
 -------------------------------------------

 -------------------
 Title Card Required
 -------------------
 Symbolic Z-matrix:
 Charge =  0 Multiplicity = 1

 SCF Done:  E(RB3LYP) =  -118.707369604     A.U. after   12 cycles
 SCF Done:  E(RB3LYP) =  -118.824300803     A.U. after   11 cycles
 SCF Done:  E(RB3LYP) =  -118.963076880     A.U. after   11 cycles
 SCF Done:  E(RB3LYP) =  -119.032478521     A.U. after   11 cycles
 SCF Done:  E(RB3LYP) =  -119.051497369     A.U. after   10 cycles
 SCF Done:  E(RB3LYP) =  -119.060675056     A.U. after   10 cycles
 SCF Done:  E(RB3LYP) =  -119.061445557     A.U. after    9 cycles
 SCF Done:  E(RB3LYP) =  -119.061575418     A.U. after    8 cycles
 SCF Done:  E(RB3LYP) =  -119.061589944     A.U. after    7 cycles
 SCF Done:  E(RB3LYP) =  -119.061597969     A.U. after    7 cycles
 SCF Done:  E(RB3LYP) =  -119.061598833     A.U. after    6 cycles
 Optimization completed.
    -- Stationary point found.

                         Standard orientation:
 ---------------------------------------------------------------------
 Center     Atomic      Atomic             Coordinates (Angstroms)
 Number     Number       Type             X           Y           Z
 ---------------------------------------------------------------------
      1          6           0       -1.275929   -0.259066   -0.000000
      2          1           0       -1.321087   -0.911396    0.888735
      3          1           0       -2.181985    0.368319    0.000038
      4          1           0       -1.321123   -0.911341   -0.888773
      5          6           0        0.000012    0.585634    0.000000
      6          1           0        0.000006    1.251943   -0.881262
      7          1           0        0.000006    1.251942    0.881263
      8          6           0        1.275919   -0.259073    0.000000
      9          1           0        2.181976    0.368314   -0.000069
     10          1           0        1.321132   -0.911329    0.888786
     11          1           0        1.321063   -0.911424   -0.888720
 ---------------------------------------------------------------------

 The electronic state is 1-A.
 Alpha  occ. eigenvalues --  -10.18210 -10.17634 -10.17632  -0.77061  -0.67074
 Alpha  occ. eigenvalues --   -0.57571  -0.45369  -0.43460  -0.39711  -0.37813
 Alpha  occ. eigenvalues --   -0.33932  -0.33650  -0.32589
 Alpha virt. eigenvalues --    0.05712   0.10329   0.10567   0.10640   0.13447
 Alpha virt. eigenvalues --    0.15481   0.15796   0.16512   0.21372   0.25322
 Alpha virt. eigenvalues --    0.39652   0.41821   0.42949   0.44577   0.45776

 Mulliken charges:
               1
     1  C   -0.011294
     2  H    0.007894
     3  H    0.010263
     4  H    0.007895
     5  C   -0.036193
     6  H    0.003336
     7  H    0.003336
     8  C   -0.011286
     9  H    0.010262
    10  H    0.007895
    11  H    0.007893
 Sum of Mulliken charges =  -0.00000

 Dipole moment (field-independent basis, Debye):
    X=              0.0000    Y=              0.0562    Z=              0.0000  Tot=              0.0562
 Quadrupole moment (field-independent basis, Debye-Ang):
   XX=            -22.1733   YY=            -21.8920   ZZ=            -21.5208
   XY=             -0.0000   XZ=             -0.0000   YZ=             -0.0000

 Normal termination of Gaussian 16 at Sat Sep  2 02:47:55 2023.
